 Gaussian 09, Revision A.02,
 Gaussian 09:  EM64L-G09RevA.02 11-Jun-2009

 --------------------
 #p freq rhf/6-31g(d)
 --------------------

 -------------------
 Title Card Required
 -------------------
 Symbolic Z-matrix:
 Charge = -1 Multiplicity = 1

                         Standard orientation:
 ---------------------------------------------------------------------
 Center     Atomic      Atomic             Coordinates (Angstroms)
 Number     Number       Type             X           Y           Z
 ---------------------------------------------------------------------
      1          1           0        0.000000    0.000000   -0.313232
      2         17           0        0.000000    0.000000    1.672750
      3         17           0        0.000000    0.000000   -1.654325
 ---------------------------------------------------------------------

 SCF Done:  E(RHF) =  -919.617499153     A.U. after   10 cycles

 The electronic state is 1-SG.
 Alpha  occ. eigenvalues -- -104.63432-104.52299 -10.37013 -10.25338  -7.83962
 Alpha  occ. eigenvalues --   -7.83660  -7.83660  -7.72170  -7.72091  -7.72091
 Alpha  occ. eigenvalues --   -0.91668  -0.76780  -0.42791  -0.28762  -0.28762
 Alpha  occ. eigenvalues --   -0.18038  -0.18017  -0.18017
 Alpha virt. eigenvalues --    0.41472   0.71413   0.74523   0.78934   0.78934
 Alpha virt. eigenvalues --    0.82796   0.89947   0.89947   1.01821   1.26752
 Alpha virt. eigenvalues --    1.31141   1.31141   1.33231   1.33231   1.44011

 Mulliken atomic charges:
              1
     1  H    0.281528
     2  Cl  -0.847210
     3  Cl  -0.434318
 Sum of Mulliken atomic charges =  -1.00000

 Dipole moment (field-independent basis, Debye):
    X=              0.0000    Y=              0.0000    Z=             -3.7625  Tot=              3.7625
 Quadrupole moment (field-independent basis, Debye-Ang):
   XX=            -29.9605   YY=            -29.9605   ZZ=            -46.2820
   XY=              0.0000   XZ=              0.0000   YZ=              0.0000

  Exact polarizability:  12.456   0.000  12.456   0.000   0.000  38.556
 Approx polarizability:  11.140   0.000  11.140   0.000   0.000  28.553

                     1                      2                      3
                    SG                     PI                     PI
 Frequencies --   176.6046               717.7694               717.7694
 Red. masses --    19.7763                 1.0225                 1.0225
 Frc consts  --     0.3634                 0.3104                 0.3104
 IR Inten    --    84.3745                69.0085                69.0085
 Raman Activ --     2.6147                 0.0256                 0.0256

                     4
                    SG
 Frequencies --  2088.7335
 Red. masses --     1.0454
 Frc consts  --     2.6872
 IR Inten    --  3293.4672
 Raman Activ --  1037.8549

 - Thermochemistry -
 -------------------
 Temperature   298.150 Kelvin.  Pressure   1.00000 Atm.
 Atom     1 has atomic number  1 and mass   1.00783

 Molecular mass:    70.94553 amu.
 Principal axes and moments of inertia in atomic units:
                           1         2         3
     Eigenvalues --     0.00000 691.52205 691.52205
           X            0.00000   0.00000   1.00000
           Y            0.00000   1.00000   0.00000
           Z            1.00000   0.00000   0.00000
 This molecule is a prolate symmetric top.
 Rotational symmetry number  1.
 Warning -- assumption of classical behavior for rotation
           may cause significant error
 Rotational temperature (Kelvin)      0.12525
 Rotational constant (GHZ):           2.609810
 Zero-point vibrational energy      22136.2 (Joules/Mol)
                                    5.29067 (Kcal/Mol)
 Warning -- explicit consideration of   1 degrees of freedom as
           vibrations may cause significant error
 Vibrational temperatures:    254.09  1032.71  1032.71  3005.22
          (Kelvin)

 Zero-point correction=                           0.008431 (Hartree/Particle)
 Thermal correction to Energy=                    0.011602
 Thermal correction to Enthalpy=                  0.012546
 Thermal correction to Gibbs Free Energy=        -0.015520
 Sum of electronic and zero-point Energies=           -919.609068
 Sum of electronic and thermal Energies=              -919.605897
 Sum of electronic and thermal Enthalpies=            -919.604953
 Sum of electronic and thermal Free Energies=         -919.633019

                     E (Thermal)             CV                S
                      KCal/Mol        Cal/Mol-Kelvin    Cal/Mol-Kelvin
 Total                    7.280              8.439             59.069
 Electronic               0.000              0.000              0.000
 Translational            0.889              2.981             38.695
 Rotational               0.592              1.987             17.438
 Vibrational              5.799              3.471              2.936
 Vibration     1          0.628              1.871              2.364

 1\1\GINC-BRIGHTEYES\Freq\RHF\6-31G(d)\Cl2H1(1-)\RPATON\12-Apr-2017\0\\
 #p freq rhf/6-31g(d)\\Title Card Required\\-1,1\H,0.,0.,-0.313232\Cl,0
 .,0.,1.67275\Cl,0.,0.,-1.654325\\Version=EM64L-G09RevA.02\State=1-SG\H
 F=-919.6174992\RMSD=6.976e-09\RMSF=1.315e-04\ZeroPoint=0.0084312\Therm
 al=0.0116018\Dipole=0.,0.,-1.4802879\DipoleDeriv=0.2522044,0.,0.,0.,0.
 2522044,0.,0.,0.,1.8411271,-0.8343332,0.,0.,0.,-0.8343332,0.,0.,0.,-1.
 467634,-0.4178713,0.,0.,0.,-0.4178713,0.,0.,0.,-1.3734932\Polar=12.455
 8556,0.,12.4558556,0.,0.,38.5557848\PolarDeriv=0.,0.,0.,-0.1470022,0.,

 Normal termination of Gaussian 09 at Wed Apr 12 22:08:03 2017.
