 Gaussian 09, Revision D.01,
 Gaussian 09:  ES64L-G09RevD.01 24-Apr-2013

 -------------------------------------
 # B3LYP/aug-cc-pVTZ freq symm(PG=D3H)
 -------------------------------------

 ----------
 CH3F_F_SN2
 ----------
 Symbolic Z-matrix:
 Charge = -1 Multiplicity = 1

                         Standard orientation:
 ---------------------------------------------------------------------
 Center     Atomic      Atomic             Coordinates (Angstroms)
 Number     Number       Type             X           Y           Z
 ---------------------------------------------------------------------
      1          6           0        0.000000    0.000005   -0.000090
      2          1           0        0.000000   -0.053863    1.068621
      3          1           0        0.000000    0.952484   -0.487810
      4          1           0        0.000000   -0.898606   -0.581112
      5          9           0       -1.852417   -0.000002    0.000047
      6          9           0        1.852417   -0.000002    0.000047
 ---------------------------------------------------------------------

 SCF Done:  E(RB3LYP) =  -239.704457296     A.U. after    9 cycles

 The electronic state is 1-A.
 Alpha  occ. eigenvalues --  -24.36502 -24.36502 -10.04741  -0.84282  -0.83868
 Alpha  occ. eigenvalues --   -0.49426  -0.25796  -0.25796  -0.18040  -0.11566
 Alpha  occ. eigenvalues --   -0.11566  -0.09676  -0.09676  -0.08820
 Alpha virt. eigenvalues --    0.12245   0.13428   0.13428   0.16874   0.21580
 Alpha virt. eigenvalues --    0.21581   0.22067   0.24495   0.24945   0.28160
 Alpha virt. eigenvalues --    0.28161   0.30127   0.30129   0.32473   0.37554

 Mulliken charges:
               1
     1  C   -0.411479
     2  H    0.302438
     3  H    0.302226
     4  H    0.302379
     5  F   -0.747782
     6  F   -0.747782
 Sum of Mulliken charges =  -1.00000

 Dipole moment (field-independent basis, Debye):
    X=              0.0000    Y=              0.0001    Z=             -0.0004  Tot=              0.0004
 Quadrupole moment (field-independent basis, Debye-Ang):
   XX=            -44.5663   YY=            -19.5910   ZZ=            -19.5909
   XY=              0.0000   XZ=              0.0000   YZ=              0.0001

  Exact polarizability:  52.376   0.001  26.393   0.000   0.003  26.388
 Approx polarizability:  64.166   0.000  32.640   0.000   0.000  32.640

 ******    1 imaginary frequencies (negative Signs) ******

                      1                      2                      3
                      A                      A                      A
 Frequencies --   -481.2885               321.4388               322.2198
 Red. masses --     12.5029                 4.5170                 4.5210
 Frc consts  --      1.7064                 0.2750                 0.2766
 IR Inten    --    959.9741                26.9726                26.9706

                      4                      5                      6
                      A                      A                      A
 Frequencies --    349.9287              1064.4861              1064.7787
 Red. masses --     18.9929                 1.0205                 1.0205
 Frc consts  --      1.3702                 0.6813                 0.6817
 IR Inten    --      0.0002                 0.0001                 0.0000

                      7                      8                      9
                      A                      A                      A
 Frequencies --   1217.2924              1396.4825              1396.7814
 Red. masses --      1.0695                 1.1137                 1.1135
 Frc consts  --      0.9337                 1.2797                 1.2800
 IR Inten    --      0.9780                 2.5516                 2.5583

                     10                     11                     12
                      A                      A                      A
 Frequencies --   3162.5727              3346.1251              3346.7581
 Red. masses --      1.0078                 1.1261                 1.1261
 Frc consts  --      5.9391                 7.4288                 7.4316
 IR Inten    --      0.0000                12.4672                12.4692

 - Thermochemistry -
 -------------------
 Temperature   298.150 Kelvin.  Pressure   1.00000 Atm.
 Atom     1 has atomic number  6 and mass  12.00000

 Molecular mass:    53.02028 amu.
 Principal axes and moments of inertia in atomic units:
                           1         2         3
     Eigenvalues --    12.36339 471.79172 471.79178
           X            1.00000   0.00000   0.00000
           Y            0.00000   1.00000   0.00024
           Z            0.00000  -0.00024   1.00000
 This molecule is an asymmetric top.
 Rotational symmetry number  1.
 Rotational temperatures (Kelvin)      7.00567     0.18358     0.18358
 Rotational constants (GHZ):         145.97460     3.82529     3.82529
    1 imaginary frequencies ignored.
 Zero-point vibrational energy     101616.0 (Joules/Mol)
                                   24.28680 (Kcal/Mol)
 Warning -- explicit consideration of   3 degrees of freedom as
           vibrations may cause significant error
 Vibrational temperatures:    462.48   463.60   503.47  1531.56  1531.98
          (Kelvin)           1751.41  2009.22  2009.65  4550.23  4814.32
                             4815.23

 Zero-point correction=                           0.038703 (Hartree/Particle)
 Thermal correction to Energy=                    0.042773
 Thermal correction to Enthalpy=                  0.043717
 Thermal correction to Gibbs Free Energy=         0.013142
 Sum of electronic and zero-point Energies=           -239.665754
 Sum of electronic and thermal Energies=              -239.661685
 Sum of electronic and thermal Enthalpies=            -239.660741
 Sum of electronic and thermal Free Energies=         -239.691315

                     E (Thermal)             CV                S
                      KCal/Mol        Cal/Mol-Kelvin    Cal/Mol-Kelvin
 Total                   26.840             11.832             64.350
 Electronic               0.000              0.000              0.000
 Translational            0.889              2.981             37.827
 Rotational               0.889              2.981             22.536
 Vibrational             25.063              5.870              3.987
 Vibration     1          0.707              1.632              1.303
 Vibration     2          0.707              1.631              1.299
 Vibration     3          0.727              1.575              1.167

 Optimization completed.
    -- Stationary point found.
 Normal termination of Gaussian 09 at Sat Jul 25 21:00:29 2015.
