 Gaussian 09, Revision D.01,
 Gaussian 09:  ES64L-G09RevD.01 24-Apr-2013

 ------------------------
 # B3LYP/aug-cc-pvtz freq
 ------------------------

 ----------
 CH3F_F_SN2
 ----------
 Symbolic Z-matrix:
 Charge = -1 Multiplicity = 1

                         Standard orientation:
 ---------------------------------------------------------------------
 Center     Atomic      Atomic             Coordinates (Angstroms)
 Number     Number       Type             X           Y           Z
 ---------------------------------------------------------------------
      1          6           0        0.000034    0.001814   -0.418614
      2          1           0        0.916815   -0.461848   -0.077810
      3          1           0       -0.859009   -0.561801   -0.078050
      4          1           0       -0.057658    1.026099   -0.073378
      5          9           0       -0.000049    0.006132   -1.864202
      6          9           0        0.000010   -0.007613    2.168749
 ---------------------------------------------------------------------

 SCF Done:  E(RB3LYP) =  -239.720760328     A.U. after   12 cycles

 The electronic state is 1-A.
 Alpha  occ. eigenvalues --  -24.49899 -24.27941 -10.06000  -1.01012  -0.74314
 Alpha  occ. eigenvalues --   -0.52107  -0.30794  -0.30289  -0.30289  -0.18379
 Alpha  occ. eigenvalues --   -0.18379  -0.03057  -0.02960  -0.02960
 Alpha virt. eigenvalues --    0.11381   0.13473   0.13474   0.16538   0.20387
 Alpha virt. eigenvalues --    0.20389   0.21129   0.26066   0.27457   0.27457
 Alpha virt. eigenvalues --    0.28881   0.29457   0.29460   0.32906   0.36866

 Mulliken charges:
               1
     1  C   -0.302353
     2  H    0.255964
     3  H    0.256195
     4  H    0.255875
     5  F   -0.492191
     6  F   -0.973489
 Sum of Mulliken charges =  -1.00000

 Dipole moment (field-independent basis, Debye):
    X=              0.0001    Y=              0.0243    Z=             -6.6619  Tot=              6.6620
 Quadrupole moment (field-independent basis, Debye-Ang):
   XX=            -19.9469   YY=            -19.9474   ZZ=            -48.8469
   XY=              0.0001   XZ=             -0.0003   YZ=              0.0996

  Exact polarizability:  28.697  -0.006  28.689   0.009  -0.034  40.002
 Approx polarizability:  34.670   0.000  34.670   0.000  -0.028  43.345

                      1                      2                      3
                      A                      A                      A
 Frequencies --    110.8600               113.4812               167.9990
 Red. masses --      2.9273                 2.9322                11.9494
 Frc consts  --      0.0212                 0.0222                 0.1987
 IR Inten    --     15.0020                15.0238                64.8502

                      4                      5                      6
                      A                      A                      A
 Frequencies --    849.7145              1102.0527              1103.1134
 Red. masses --     11.3102                 1.2353                 1.2347
 Frc consts  --      4.8113                 0.8839                 0.8852
 IR Inten    --    275.7470                 2.3210                 2.3089

                      7                      8                      9
                      A                      A                      A
 Frequencies --   1369.2804              1466.6837              1466.9292
 Red. masses --      1.0970                 1.0654                 1.0653
 Frc consts  --      1.2118                 1.3503                 1.3506
 IR Inten    --      0.2378                 5.0590                 5.0851

                     10                     11                     12
                      A                      A                      A
 Frequencies --   3101.9520              3200.9993              3201.2510
 Red. masses --      1.0243                 1.1113                 1.1114
 Frc consts  --      5.8070                 6.7092                 6.7103
 IR Inten    --      6.1947                22.6681                22.6722

 - Thermochemistry -
 -------------------
 Temperature   298.150 Kelvin.  Pressure   1.00000 Atm.
 Atom     1 has atomic number  6 and mass  12.00000

 Molecular mass:    53.02028 amu.
 Principal axes and moments of inertia in atomic units:
                           1         2         3
     Eigenvalues --    11.38579 568.13454 568.13472
           X            0.00001   0.00355   0.99999
           Y           -0.00343   0.99999  -0.00355
           Z            0.99999   0.00343  -0.00002
 This molecule is an asymmetric top.
 Rotational symmetry number  1.
 Rotational temperatures (Kelvin)      7.60719     0.15245     0.15245
 Rotational constants (GHZ):         158.50828     3.17661     3.17661
 Zero-point vibrational energy     103203.7 (Joules/Mol)
                                   24.66628 (Kcal/Mol)
 Warning -- explicit consideration of   3 degrees of freedom as
           vibrations may cause significant error
 Vibrational temperatures:    159.50   163.27   241.71  1222.55  1585.61
          (Kelvin)           1587.13  1970.09  2110.23  2110.58  4463.01
                             4605.52  4605.88

 Zero-point correction=                           0.039308 (Hartree/Particle)
 Thermal correction to Energy=                    0.044311
 Thermal correction to Enthalpy=                  0.045255
 Thermal correction to Gibbs Free Energy=         0.012038
 Sum of electronic and zero-point Energies=           -239.681452
 Sum of electronic and thermal Energies=              -239.676449
 Sum of electronic and thermal Enthalpies=            -239.675505
 Sum of electronic and thermal Free Energies=         -239.708722

                     E (Thermal)             CV                S
                      KCal/Mol        Cal/Mol-Kelvin    Cal/Mol-Kelvin
 Total                   27.805             13.136             69.911
 Electronic               0.000              0.000              0.000
 Translational            0.889              2.981             37.827
 Rotational               0.889              2.981             22.823
 Vibrational             26.028              7.174              9.261
 Vibration     1          0.607              1.940              3.254
 Vibration     2          0.607              1.938              3.208
 Vibration     3          0.625              1.882              2.458

 Optimization completed.
    -- Stationary point found.
 Normal termination of Gaussian 09 at Sat Jul 25 21:27:59 2015.
