 Gaussian 09, Revision A.02,
 Gaussian 09:  EM64L-G09RevA.02 11-Jun-2009

 --------------------
 #p freq rhf/6-31g(d)
 --------------------

 -------------------
 Title Card Required
 -------------------
 Symbolic Z-matrix:
 Charge = -1 Multiplicity = 1

                         Standard orientation:
 ---------------------------------------------------------------------
 Center     Atomic      Atomic             Coordinates (Angstroms)
 Number     Number       Type             X           Y           Z
 ---------------------------------------------------------------------
      1          1           0        0.000000    0.000000    0.000000
      2         17           0        0.000000    0.000000    1.570000
      3         17           0        0.000000    0.000000   -1.570000
 ---------------------------------------------------------------------

 SCF Done:  E(RHF) =  -919.614524314     A.U. after    9 cycles

 The electronic state is 1-SGG.
 Alpha  occ. eigenvalues -- -104.57331-104.57331 -10.30699 -10.30697  -7.77581
 Alpha  occ. eigenvalues --   -7.77581  -7.77388  -7.77388  -7.77387  -7.77387
 Alpha  occ. eigenvalues --   -0.85864  -0.81609  -0.39431  -0.23997  -0.23997
 Alpha  occ. eigenvalues --   -0.22236  -0.22236  -0.19777
 Alpha virt. eigenvalues --    0.42485   0.73567   0.76261   0.80762   0.80762
 Alpha virt. eigenvalues --    0.82549   0.88745   0.88745   0.99446   1.37903
 Alpha virt. eigenvalues --    1.37903   1.38068   1.38068   1.39230   1.39230

 Mulliken atomic charges:
              1
     1  H    0.234485
     2  Cl  -0.617242
     3  Cl  -0.617242
 Sum of Mulliken atomic charges =  -1.00000

 Dipole moment (field-independent basis, Debye):
    X=              0.0000    Y=              0.0000    Z=              0.0000  Tot=              0.0000
 Quadrupole moment (field-independent basis, Debye-Ang):
   XX=            -30.0164   YY=            -30.0164   ZZ=            -45.0061
   XY=              0.0000   XZ=              0.0000   YZ=              0.0000

  Exact polarizability:  12.525   0.000  12.525   0.000   0.000  46.106
 Approx polarizability:  11.298   0.000  11.298   0.000   0.000  34.132

 ******    1 imaginary frequencies (negative Signs) ******

                     1                      2                      3
                    SGU                    SGG                    PIU
 Frequencies -- -1013.5062               344.3931               901.3014
 Red. masses --     1.0219                34.9689                 1.0219
 Frc consts  --     0.6185                 2.4437                 0.4891
 IR Inten    --  7481.6367                 0.0000                63.8324
 Raman Activ --     0.0000                11.6157                 0.0000

                     4
                    PIU
 Frequencies --   901.3014
 Red. masses --     1.0219
 Frc consts  --     0.4891
 IR Inten    --    63.8324
 Raman Activ --     0.0000

 - Thermochemistry -
 -------------------
 Temperature   298.150 Kelvin.  Pressure   1.00000 Atm.
 Atom     1 has atomic number  1 and mass   1.00783

 Molecular mass:    70.94553 amu.
 Principal axes and moments of inertia in atomic units:
                           1         2         3
     Eigenvalues --     0.00000 615.61391 615.61391
           X            0.00000   1.00000   0.00000
           Y            0.00000   0.00000   1.00000
           Z            1.00000   0.00000   0.00000
 This molecule is a prolate symmetric top.
 Rotational symmetry number  2.
 Warning -- assumption of classical behavior for rotation
           may cause significant error
 Rotational temperature (Kelvin)      0.14070
 Rotational constant (GHZ):           2.931612
    1 imaginary frequencies ignored.
 Zero-point vibrational energy      12841.9 (Joules/Mol)
                                    3.06928 (Kcal/Mol)
 Warning -- explicit consideration of   1 degrees of freedom as
           vibrations may cause significant error
 Vibrational temperatures:    495.50  1296.77  1296.77
          (Kelvin)

 Zero-point correction=                           0.004891 (Hartree/Particle)
 Thermal correction to Energy=                    0.007727
 Thermal correction to Enthalpy=                  0.008671
 Thermal correction to Gibbs Free Energy=        -0.017934
 Sum of electronic and zero-point Energies=           -919.609633
 Sum of electronic and thermal Energies=              -919.606798
 Sum of electronic and thermal Enthalpies=            -919.605853
 Sum of electronic and thermal Free Energies=         -919.632458

                     E (Thermal)             CV                S
                      KCal/Mol        Cal/Mol-Kelvin    Cal/Mol-Kelvin
 Total                    4.849              7.551             55.994
 Electronic               0.000              0.000              0.000
 Translational            0.889              2.981             38.695
 Rotational               0.592              1.987             15.829
 Vibrational              3.367              2.583              1.470
 Vibration     1          0.723              1.587              1.192

 1\1\GINC-BRIGHTEYES\Freq\RHF\6-31G(d)\Cl2H1(1-)\RPATON\12-Apr-2017\0\\
 #p freq rhf/6-31g(d)\\Title Card Required\\-1,1\H,0.,0.,0.\Cl,0.,0.,1.
 57\Cl,0.,0.,-1.57\\Version=EM64L-G09RevA.02\State=1-SGG\HF=-919.614524
 3\RMSD=5.452e-09\RMSF=3.037e-04\ZeroPoint=0.0048912\Thermal=0.0077267\
 Dipole=0.,0.,0.\DipoleDeriv=0.2408476,0.,0.,0.,0.2408476,0.,0.,0.,2.74
 70614,-0.6204238,0.,0.,0.,-0.6204238,0.,0.,0.,-1.8735307,-0.6204238,0.
 ,0.,0.,-0.6204238,0.,0.,0.,-1.8735307\Polar=12.5247069,0.,12.5247069,0
 .,0.,46.1055496\PolarDeriv=0.,0.,0.,0.,0.,0.,0.,0.,0.,0.,0.,0.,0.,0.,0

 Normal termination of Gaussian 09 at Wed Apr 12 22:07:58 2017.
